! TOUCHSTONE file generated by CST MICROWAVE STUDIO
! Date and time: Sun Mar 23 14:11:06 2025
! Project name: Dipole_antenna_student (1 GHz)_2024.cst
! Parameters = {dipole_length=114}
! Header version: 2024
! Port assignment regex: !\s*Touchstone port\s*([0-9]+)\s*=\s*(CST MWS port|CST DES external port|CST DES block port)\s*(.+)\s* \(\"(.*)\"\)(\s*mode\s*([0-9]+))?.*
! Touchstone port assignment:
! Touchstone port 1 = CST MWS port 1 ("")
# GHz S MA R 50
0.4                  0.992931242     -33.5891297
0.4011               0.992894667     -33.6909424
0.4022               0.992857835     -33.7928517
0.4033               0.992820742     -33.8948582
0.4044               0.992783386     -33.9969626
0.4055               0.992745763     -34.0991653
0.4066               0.992707871     -34.2014671
0.4077               0.992669705     -34.3038686
0.4088               0.992631264     -34.4063703
0.4099               0.992592544     -34.5089728
0.411                0.992553541     -34.6116769
0.4121               0.992514253     -34.7144831
0.4132               0.992474675     -34.8173921
0.4143               0.992434806     -34.9204045
0.4154                0.99239464      -35.023521
0.4165               0.992354176     -35.1267422
0.4176               0.992313408     -35.2300687
0.4187               0.992272335     -35.3335012
0.4198               0.992230951     -35.4370403
0.4209               0.992189255     -35.5406868
0.422                0.992147241     -35.6444413
0.4231               0.992104906     -35.7483044
0.4242               0.992062246     -35.8522768
0.4253               0.992019259     -35.9563593
0.4264               0.991975939     -36.0605524
0.4275               0.991932282     -36.1648569
0.4286               0.991888286     -36.2692735
0.4297               0.991843945     -36.3738028
0.4308               0.991799256     -36.4784456
0.4319               0.991754215     -36.5832025
0.433                0.991708817     -36.6880743
0.4341               0.991663059     -36.7930617
0.4352               0.991616935     -36.8981653
0.4363               0.991570443      -37.003386
0.4374               0.991523576     -37.1087244
0.4385               0.991476332     -37.2141813
0.4396               0.991428705     -37.3197574
0.4407               0.991380691     -37.4254534
0.4418               0.991332285     -37.5312701
0.4429               0.991283483     -37.6372083
0.444                 0.99123428     -37.7432686
0.4451               0.991184671     -37.8494519
0.4462               0.991134651     -37.9557588
0.4473               0.991084216     -38.0621903
0.4484               0.991033361      -38.168747
0.4495                0.99098208     -38.2754297
0.4506               0.990930369     -38.3822392
0.4517               0.990878222     -38.4891763
0.4528               0.990825635     -38.5962417
0.4539               0.990772601     -38.7034364
0.455                0.990719117      -38.810761
0.4561               0.990665175     -38.9182164
0.4572               0.990610772     -39.0258034
0.4583               0.990555901     -39.1335228
0.4594               0.990500557     -39.2413755
0.4605               0.990444735     -39.3493622
0.4616               0.990388428     -39.4574838
0.4627               0.990331631     -39.5657412
0.4638               0.990274337     -39.6741351
0.4649               0.990216543     -39.7826665
0.466                 0.99015824     -39.8913361
0.4671               0.990099423     -40.0001449
0.4682               0.990040086     -40.1090937
0.4693               0.989980224     -40.2181834
0.4704               0.989919828     -40.3274149
0.4715               0.989858895      -40.436789
0.4726               0.989797416     -40.5463066
0.4737               0.989735385     -40.6559687
0.4748               0.989672796      -40.765776
0.4759               0.989609643     -40.8757296
0.477                0.989545918     -40.9858304
0.4781               0.989481615     -41.0960792
0.4792               0.989416726      -41.206477
0.4803               0.989351246     -41.3170248
0.4814               0.989285166     -41.4277233
0.4825               0.989218481     -41.5385737
0.4836               0.989151182     -41.6495769
0.4847               0.989083262     -41.7607337
0.4858               0.989014714     -41.8720452
0.4869               0.988945531     -41.9835123
0.488                0.988875705     -42.0951361
0.4891               0.988805228     -42.2069174
0.4902               0.988734093     -42.3188573
0.4913               0.988662291     -42.4309568
0.4924               0.988589816     -42.5432169
0.4935               0.988516658     -42.6556385
0.4946               0.988442811     -42.7682227
0.4957               0.988368265     -42.8809706
0.4968               0.988293013     -42.9938831
0.4979               0.988217045     -43.1069613
0.499                0.988140355     -43.2202062
0.5                  0.988070001     -43.3233016
0.5001               0.988062933     -43.3336172
0.5012               0.987984774     -43.4471807
0.5023               0.987905865      -43.560914
0.5034               0.987826199     -43.6748182
0.5045               0.987745765     -43.7888944
0.5056               0.987664555     -43.9031436
0.5067                0.98758256     -44.0175669
0.5078                0.98749977     -44.1321655
0.5089               0.987416176     -44.2469405
0.51                 0.987331768     -44.3618929
0.5111               0.987246538     -44.4770239
0.5122               0.987160474     -44.5923347
0.5133               0.987073568     -44.7078263
0.5144               0.986985809     -44.8234999
0.5155               0.986897187     -44.9393567
0.5166               0.986807693     -45.0553978
0.5177               0.986717315     -45.1716244
0.5188               0.986626044     -45.2880376
0.5199               0.986533869     -45.4046388
0.521                0.986440778      -45.521429
0.5221               0.986346763     -45.6384094
0.5232                0.98625181     -45.7555814
0.5243                0.98615591      -45.872946
0.5254               0.986059052     -45.9905046
0.5265               0.985961223     -46.1082583
0.5276               0.985862413     -46.2262084
0.5287                0.98576261     -46.3443562
0.5298               0.985661802     -46.4627029
0.5309               0.985559978     -46.5812499
0.532                0.985457125     -46.6999983
0.5331               0.985353232     -46.8189495
0.5342               0.985248286     -46.9381047
0.5353               0.985142274     -47.0574654
0.5364               0.985035185     -47.1770327
0.5375               0.984927006     -47.2968081
0.5386               0.984817723     -47.4167928
0.5397               0.984707324     -47.5369883
0.5408               0.984595795     -47.6573959
0.5419               0.984483124     -47.7780168
0.543                0.984369296     -47.8988526
0.5441               0.984254299     -48.0199046
0.5452               0.984138119     -48.1411742
0.5463               0.984020741     -48.2626628
0.5474               0.983902152     -48.3843719
0.5485               0.983782337     -48.5063027
0.5496               0.983661282     -48.6284569
0.5507               0.983538972     -48.7508358
0.5518               0.983415393     -48.8734409
0.5529               0.983290529     -48.9962736
0.554                0.983164366     -49.1193355
0.5551               0.983036888      -49.242628
0.5562               0.982908081     -49.3661527
0.5573               0.982777927      -49.489911
0.5584               0.982646412     -49.6139044
0.5595               0.982513519     -49.7381346
0.5606               0.982379233     -49.8626029
0.5617               0.982243536     -49.9873111
0.5628               0.982106413     -50.1122607
0.5639               0.981967846     -50.2374532
0.565                0.981827819     -50.3628902
0.5661               0.981686314     -50.4885734
0.5672               0.981543314     -50.6145043
0.5683               0.981398801     -50.7406846
0.5694               0.981252759     -50.8671159
0.5705               0.981105168     -50.9937999
0.5716                0.98095601     -51.1207383
0.5727               0.980805268     -51.2479326
0.5738               0.980652922     -51.3753846
0.5749               0.980498954     -51.5030961
0.576                0.980343345     -51.6310686
0.5771               0.980186074      -51.759304
0.5782               0.980027124     -51.8878039
0.5793               0.979866474     -52.0165702
0.5804               0.979704103     -52.1456045
0.5815               0.979539992     -52.2749087
0.5826               0.979374121     -52.4044846
0.5837               0.979206469     -52.5343339
0.5848               0.979037014     -52.6644586
0.5859               0.978865735     -52.7948603
0.587                0.978692612      -52.925541
0.5881               0.978517621     -53.0565025
0.5892               0.978340743     -53.1877467
0.5903               0.978161953     -53.3192754
0.5914                0.97798123     -53.4510907
0.5925               0.977798551     -53.5831944
0.5936               0.977613892     -53.7155883
0.5947               0.977427231     -53.8482746
0.5958               0.977238545     -53.9812551
0.5969               0.977047808     -54.1145318
0.598                0.976854997     -54.2481067
0.5991               0.976660087     -54.3819818
0.6                  0.976499038     -54.4917407
0.6002               0.976463055     -54.5161567
0.6013               0.976263878     -54.6506249
0.6024               0.976062527     -54.7853994
0.6035               0.975858977     -54.9204821
0.6046               0.975653201     -55.0558754
0.6057               0.975445174     -55.1915811
0.6068                0.97523487     -55.3276015
0.6079                0.97502226     -55.4639386
0.609                0.974807318     -55.6005947
0.6101               0.974590016     -55.7375718
0.6112               0.974370326     -55.8748722
0.6123               0.974148221     -56.0124981
0.6134               0.973923671     -56.1504516
0.6145               0.973696648      -56.288735
0.6156               0.973467123     -56.4273506
0.6167               0.973235065     -56.5663006
0.6178               0.973000445     -56.7055874
0.6189               0.972763232     -56.8452131
0.62                 0.972523396     -56.9851802
0.6211               0.972280906     -57.1254909
0.6222               0.972035731     -57.2661476
0.6233               0.971787837     -57.4071527
0.6244               0.971537194     -57.5485086
0.6255               0.971283768     -57.6902177
0.6266               0.971027527     -57.8322824
0.6277               0.970768437     -57.9747052
0.6288               0.970506464     -58.1174885
0.6299               0.970241574     -58.2606349
0.631                0.969973732     -58.4041467
0.6321               0.969702904     -58.5480266
0.6332               0.969429053     -58.6922771
0.6343               0.969152144     -58.8369008
0.6354               0.968872141     -58.9819001
0.6365               0.968589006     -59.1272778
0.6376               0.968302703     -59.2730365
0.6387               0.968013192     -59.4191787
0.6398               0.967720438     -59.5657073
0.6409                 0.9674244     -59.7126247
0.642                0.967125039     -59.8599338
0.6431               0.966822316     -60.0076373
0.6442               0.966516191     -60.1557379
0.6453               0.966206623     -60.3042384
0.6464               0.965893571     -60.4531415
0.6475               0.965576994     -60.6024502
0.6486               0.965256849     -60.7521671
0.6497               0.964933093     -60.9022952
0.6508               0.964605684     -61.0528373
0.6519               0.964274578     -61.2037964
0.653                0.963939731     -61.3551753
0.6541               0.963601097      -61.506977
0.6552               0.963258632     -61.6592044
0.6563               0.962912289     -61.8118606
0.6574               0.962562023     -61.9649485
0.6585               0.962207786     -62.1184712
0.6596               0.961849531     -62.2724318
0.6607               0.961487209     -62.4268332
0.6618               0.961120772     -62.5816786
0.6629               0.960750171     -62.7369711
0.664                0.960375355      -62.892714
0.6651               0.959996274     -63.0489102
0.6662               0.959612878     -63.2055632
0.6673               0.959225113     -63.3626759
0.6684               0.958832928     -63.5202518
0.6695                0.95843627      -63.678294
0.6706               0.958035085      -63.836806
0.6717               0.957629319     -63.9957909
0.6728               0.957218917     -64.1552521
0.6739               0.956803823      -64.315193
0.675                0.956383981      -64.475617
0.6761               0.955959334     -64.6365276
0.6772               0.955529824     -64.7979281
0.6783               0.955095393      -64.959822
0.6794               0.954655982     -65.1222129
0.6805               0.954211531     -65.2851042
0.6816               0.953761979     -65.4484996
0.6827               0.953307266     -65.6124025
0.6838               0.952847329     -65.7768167
0.6849               0.952382106     -65.9417457
0.686                0.951911533     -66.1071932
0.6871               0.951435547     -66.2731629
0.6882               0.950954081     -66.4396586
0.6893               0.950467071     -66.6066839
0.6904                0.94997445     -66.7742427
0.6915                0.94947615     -66.9423388
0.6926               0.948972103     -67.1109759
0.6937                0.94846224     -67.2801581
0.6948               0.947946492     -67.4498891
0.6959               0.947424788      -67.620173
0.697                0.946897056     -67.7910136
0.6981               0.946363224      -67.962415
0.6992               0.945823219     -68.1343811
0.7                  0.945426568     -68.2598045
0.7003               0.945276967     -68.3069134
0.7014               0.944724396      -68.480011
0.7025               0.944165426     -68.6536856
0.7036               0.943599981     -68.8279415
0.7047               0.943027982     -69.0027827
0.7058               0.942449352     -69.1782135
0.7069                0.94186401     -69.3542382
0.708                0.941271875      -69.530861
0.7091               0.940672866     -69.7080863
0.7102               0.940066901     -69.8859184
0.7113               0.939453895     -70.0643617
0.7124               0.938833763     -70.2434207
0.7135                0.93820642     -70.4230997
0.7146               0.937571779     -70.6034034
0.7157               0.936929753     -70.7843361
0.7168               0.936280251     -70.9659025
0.7179               0.935623183     -71.1481073
0.719                0.934958459     -71.3309549
0.7201               0.934285987     -71.5144501
0.7212               0.933605671     -71.6985977
0.7223               0.932917418     -71.8834022
0.7234               0.932221132     -72.0688686
0.7245               0.931516716     -72.2550016
0.7256                0.93080407     -72.4418061
0.7267               0.930083097     -72.6292869
0.7278               0.929353694     -72.8174491
0.7289                0.92861576     -73.0062974
0.73                 0.927869191      -73.195837
0.7311               0.927113883     -73.3860729
0.7322               0.926349729     -73.5770101
0.7333               0.925576623     -73.7686537
0.7344               0.924794456     -73.9610089
0.7355               0.924003118     -74.1540808
0.7366               0.923202497     -74.3478747
0.7377                0.92239248     -74.5423958
0.7388               0.921572955     -74.7376493
0.7399               0.920743804     -74.9336406
0.741                0.919904911      -75.130375
0.7421               0.919056158      -75.327858
0.7432               0.918197424     -75.5260949
0.7443               0.917328589     -75.7250911
0.7454                0.91644953     -75.9248522
0.7465               0.915560121     -76.1253838
0.7476               0.914660237     -76.3266912
0.7487               0.913749752     -76.5287802
0.7498               0.912828535     -76.7316564
0.7509               0.911896456     -76.9353254
0.752                0.910953383     -77.1397929
0.7531               0.909999183     -77.3450646
0.7542                0.90903372     -77.5511463
0.7553               0.908056857     -77.7580437
0.7564               0.907068455     -77.9657628
0.7575               0.906068375     -78.1743093
0.7586               0.905056474     -78.3836891
0.7597               0.904032609     -78.5939081
0.7608               0.902996634     -78.8049723
0.7619               0.901948402     -79.0168876
0.763                0.900887766     -79.2296601
0.7641               0.899814573     -79.4432957
0.7652               0.898728673     -79.6578006
0.7663               0.897629911     -79.8731807
0.7674               0.896518131     -80.0894423
0.7685               0.895393176     -80.3065914
0.7696               0.894254887     -80.5246343
0.7707               0.893103101     -80.7435771
0.7718               0.891937658     -80.9634259
0.7729                0.89075839     -81.1841872
0.774                0.889565133      -81.405867
0.7751               0.888357717     -81.6284717
0.7762               0.887135972     -81.8520076
0.7773               0.885899725     -82.0764811
0.7784               0.884648804     -82.3018983
0.7795                0.88338303     -82.5282658
0.7806               0.882102227     -82.7555899
0.7817               0.880806215      -82.983877
0.7828               0.879494812     -83.2131334
0.7839               0.878167834     -83.4433657
0.785                0.876825095     -83.6745801
0.7861               0.875466408     -83.9067833
0.7872               0.874091583     -84.1399816
0.7883               0.872700429     -84.3741814
0.7894               0.871292752     -84.6093894
0.7905               0.869868356     -84.8456118
0.7916               0.868427045     -85.0828553
0.7927               0.866968619     -85.3211263
0.7938               0.865492876     -85.5604312
0.7949               0.863999613     -85.8007766
0.796                0.862488625     -86.0421689
0.7971               0.860959704     -86.2846146
0.7982               0.859412642     -86.5281202
0.7993               0.857847227     -86.7726921
0.8                    0.8568414     -86.9288868
0.8004               0.856263246     -87.0183338
0.8015               0.854660484     -87.2650495
0.8026               0.853038724     -87.5128509
0.8037               0.851397746     -87.7617442
0.8048                0.84973733     -88.0117359
0.8059               0.848057252     -88.2628323
0.807                0.846357288     -88.5150397
0.8081               0.844637211     -88.7683644
0.8092               0.842896793     -89.0228127
0.8103               0.841135804     -89.2783908
0.8114                0.83935401     -89.5351049
0.8125               0.837551178     -89.7929611
0.8136               0.835727073     -90.0519656
0.8147               0.833881456     -90.3121244
0.8158               0.832014088     -90.5734435
0.8169               0.830124728     -90.8359288
0.818                0.828213133     -91.0995863
0.8191                0.82627906     -91.3644218
0.8202               0.824322261     -91.6304411
0.8213               0.822342489     -91.8976497
0.8224               0.820339495     -92.1660534
0.8235               0.818313028     -92.4356577
0.8246               0.816262836      -92.706468
0.8257               0.814188666     -92.9784897
0.8268               0.812090262     -93.2517281
0.8279               0.809967368     -93.5261882
0.829                0.807819727     -93.8018753
0.8301                0.80564708     -94.0787943
0.8312               0.803449167       -94.35695
0.8323               0.801225726      -94.636347
0.8334               0.798976497     -94.9169901
0.8345               0.796701216     -95.1988837
0.8356               0.794399619     -95.4820321
0.8367               0.792071441     -95.7664394
0.8378               0.789716418     -96.0521098
0.8389               0.787334283      -96.339047
0.84                 0.784924769     -96.6272549
0.8411               0.782487609     -96.9167368
0.8422               0.780022537     -97.2074962
0.8433               0.777529284     -97.4995363
0.8444               0.775007582       -97.79286
0.8455               0.772457164       -98.08747
0.8466               0.769877761     -98.3833689
0.8477               0.767269106     -98.6805591
0.8488               0.764630931     -98.9790427
0.8499               0.761962969     -99.2788215
0.851                0.759264954     -99.5798972
0.8521               0.756536618      -99.882271
0.8532               0.753777698     -100.185944
0.8543               0.750987928     -100.490918
0.8554               0.748167046     -100.797191
0.8565               0.745314789     -101.104766
0.8576               0.742430896     -101.413642
0.8587               0.739515108     -101.723818
0.8598               0.736567168     -102.035294
0.8609                0.73358682     -102.348068
0.862                0.730573809      -102.66214
0.8631               0.727527884     -102.977507
0.8642               0.724448797     -103.294167
0.8653               0.721336299     -103.612118
0.8664               0.718190148     -103.931357
0.8675               0.715010101      -104.25188
0.8686               0.711795921     -104.573683
0.8697               0.708547373     -104.896763
0.8708               0.705264226     -105.221114
0.8719               0.701946252     -105.546731
0.873                0.698593228     -105.873608
0.8741               0.695204934      -106.20174
0.8752               0.691781155     -106.531119
0.8763               0.688321681     -106.861738
0.8774               0.684826307     -107.193589
0.8785               0.681294831     -107.526664
0.8796               0.677727058     -107.860953
0.8807                 0.6741228     -108.196447
0.8818               0.670481872     -108.533135
0.8829               0.666804096     -108.871006
0.884                0.663089302     -109.210049
0.8851               0.659337324     -109.550251
0.8862               0.655548005     -109.891599
0.8873               0.651721193     -110.234078
0.8884               0.647856746     -110.577675
0.8895               0.643954528     -110.922373
0.8906                0.64001441     -111.268156
0.8917               0.636036274     -111.615006
0.8928               0.632020008     -111.962907
0.8939               0.627965511     -112.311837
0.895                0.623872688     -112.661778
0.8961               0.619741456     -113.012709
0.8972               0.615571741     -113.364606
0.8983               0.611363478     -113.717447
0.8994               0.607116614     -114.071208
0.9                  0.604783856     -114.264547
0.9005               0.602831099      -114.42586
0.9016                 0.5985069     -114.781378
0.9027               0.594144001     -115.137735
0.9038                0.58974239     -115.494903
0.9049                0.58530207     -115.852851
0.906                0.580823053     -116.211548
0.9071               0.576305365     -116.570959
0.9082               0.571749043     -116.931051
0.9093               0.567154137     -117.291788
0.9104               0.562520711     -117.653131
0.9115               0.557848842     -118.015041
0.9126                0.55313862     -118.377477
0.9137               0.548390149     -118.740396
0.9148               0.543603547     -119.103754
0.9159               0.538778946     -119.467503
0.917                0.533916494     -119.831595
0.9181               0.529016351      -120.19598
0.9192               0.524078695     -120.560603
0.9203               0.519103717      -120.92541
0.9214               0.514091624     -121.290344
0.9225                0.50904264     -121.655344
0.9236               0.503957004     -122.020347
0.9247                0.49883497     -122.385287
0.9258               0.493676808     -122.750097
0.9269               0.488482808     -123.114705
0.928                0.483253273     -123.479035
0.9291               0.477988523     -123.843011
0.9302               0.472688896      -124.20655
0.9313               0.467354747     -124.569568
0.9324               0.461986448     -124.931975
0.9335               0.456584388     -125.293677
0.9346               0.451148974     -125.654577
0.9357                0.44568063     -126.014573
0.9368               0.440179797     -126.373556
0.9379               0.434646936     -126.731415
0.939                0.429082523     -127.088031
0.9401               0.423487053      -127.44328
0.9412               0.417861041     -127.797032
0.9423               0.412205018     -128.149149
0.9434               0.406519532     -128.499486
0.9445               0.400805151     -128.847892
0.9456               0.395062463     -129.194206
0.9467                0.38929207     -129.538258
0.9478               0.383494596     -129.879869
0.9489               0.377670682      -130.21885
0.95                 0.371820988     -130.555001
0.9511               0.365946181     -130.888106
0.9522               0.360046969     -131.217942
0.9533               0.354124071     -131.544271
0.9544               0.348178222     -131.866836
0.9555               0.342210177     -132.185368
0.9566               0.336220712     -132.499576
0.9577               0.330210621     -132.809152
0.9588                0.32418072     -133.113765
0.9599               0.318131845     -133.413062
0.961                0.312064854     -133.706662
0.9621               0.305980626     -133.994157
0.9632               0.299880062     -134.275108
0.9643               0.293764089     -134.549042
0.9654               0.287633656     -134.815448
0.9665               0.281489737     -135.073772
0.9676               0.275333336     -135.323414
0.9687               0.269165481     -135.563722
0.9698               0.262987235     -135.793988
0.9709                0.25679969     -136.013437
0.972                0.250603973     -136.221222
0.9731               0.244401252     -136.416418
0.9742               0.238192734     -136.598005
0.9753               0.231979671     -136.764862
0.9764               0.225763369     -136.915751
0.9775               0.219545186     -137.049301
0.9786               0.213326546     -137.163992
0.9797               0.207108945      -137.25813
0.9808               0.200893957     -137.329825
0.9819               0.194683251     -137.376957
0.983                0.188478602     -137.397149
0.9841               0.182281908     -137.387717
0.9852               0.176095208     -137.345624
0.9863               0.169920712     -137.267423
0.9874               0.163760824     -137.149182
0.9885               0.157618181     -136.986403
0.9896               0.151495697     -136.773914
0.9907                0.14539662     -136.505743
0.9918               0.139324594     -136.174969
0.9929               0.133283751     -135.773528
0.994                0.127278812      -135.29198
0.9951               0.121315223     -134.719227
0.9962                0.11539933     -134.042151
0.9973               0.109538596      -133.24518
0.9984               0.103741882     -132.309741
0.9995              0.0980198184     -131.213594
1                   0.0954469419     -130.655181
1.0006               0.092385266     -129.930012
1.0017              0.0868539617     -128.426824
1.0028              0.0814453171       -126.6653
1.0039              0.0761834484     -124.598934
1.005               0.0710985167     -122.172327
1.0061              0.0662283839     -119.320504
1.0072              0.0616205693     -115.969397
1.0083              0.0573343404     -112.038774
1.0094              0.0534424828      -107.44963
1.0105              0.0500317925     -102.138589
1.0116              0.0472006835     -96.0811776
1.0127              0.0450518826     -89.3219248
1.0138              0.0436789509     -82.0011575
1.0149              0.0431483067     -74.3598412
1.016               0.0434828038     -66.7065644
1.0171               0.044654897      -59.352359
1.0182              0.0465933474     -52.5442691
1.0193              0.0491997362     -46.4296487
1.0204              0.0523667317     -41.0588021
1.0215              0.0559918641     -36.4109375
1.0226              0.0599849955     -32.4244836
1.0237              0.0642707294     -29.0209498
1.0248              0.0687878418     -26.1198967
1.0259              0.0734873977     -23.6467174
1.027               0.0783305458     -21.5357967
1.0281              0.0832864643     -19.7311098
1.0292              0.0883306275     -18.1855932
1.0303              0.0934434138     -16.8600344
1.0314              0.0986090181      -15.721868
1.0325               0.103814613     -14.7440503
1.0336               0.109049704     -13.9040792
1.0347               0.114305637     -13.1831711
1.0358               0.119575219     -12.5655842
1.0369               0.124852423      -12.038067
1.038                0.130132164     -11.5894125
1.0391                0.13541012     -11.2100974
1.0402               0.140682591     -10.8919911
1.0413               0.145946393     -10.6281196