! TOUCHSTONE file generated by CST MICROWAVE STUDIO
! Date and time: Mon Mar 17 13:33:34 2025
! Project name: Dipole_antenna_student (1 GHz)_2024.cst
! Parameters = {dipole_length=93.7}
! Header version: 2024
! Port assignment regex: !\s*Touchstone port\s*([0-9]+)\s*=\s*(CST MWS port|CST DES external port|CST DES block port)\s*(.+)\s* \(\"(.*)\"\)(\s*mode\s*([0-9]+))?.*
! Touchstone port assignment:
! Touchstone port 1 = CST MWS port 1 ("")
# GHz S MA R 50
0.4                  0.994199498     -31.4136204
0.4011                0.99417652     -31.5053252
0.4022               0.994153439     -31.5970811
0.4033               0.994130251     -31.6888883
0.4044               0.994106957      -31.780747
0.4055               0.994083555     -31.8726574
0.4066               0.994060045       -31.96462
0.4077               0.994036425     -32.0566349
0.4088               0.994012694     -32.1487023
0.4099                0.99398885     -32.2408226
0.411                0.993964894     -32.3329961
0.4121               0.993940824      -32.425223
0.4132               0.993916638     -32.5175035
0.4143               0.993892336      -32.609838
0.4154               0.993867916     -32.7022268
0.4165               0.993843377       -32.79467
0.4176               0.993818718     -32.8871681
0.4187               0.993793938     -32.9797211
0.4198               0.993769035     -33.0723296
0.4209               0.993744008     -33.1649936
0.422                0.993718857     -33.2577136
0.4231               0.993693579     -33.3504897
0.4242               0.993668174     -33.4433224
0.4253                0.99364264     -33.5362118
0.4264               0.993616976     -33.6291582
0.4275               0.993591181      -33.722162
0.4286               0.993565253     -33.8152233
0.4297               0.993539191     -33.9083426
0.4308               0.993512993     -34.0015202
0.4319               0.993486659     -34.0947562
0.433                0.993460186      -34.188051
0.4341               0.993433573     -34.2814049
0.4352                0.99340682     -34.3748182
0.4363               0.993379924     -34.4682911
0.4374               0.993352884     -34.5618241
0.4385               0.993325699     -34.6554173
0.4396               0.993298367     -34.7490712
0.4407               0.993270887     -34.8427859
0.4418               0.993243256     -34.9365618
0.4429               0.993215474     -35.0303992
0.444                 0.99318754     -35.1242985
0.4451                0.99315945     -35.2182598
0.4462               0.993131205     -35.3122836
0.4473               0.993102802     -35.4063702
0.4484                0.99307424     -35.5005198
0.4495               0.993045516     -35.5947327
0.4506                0.99301663     -35.6890094
0.4517                0.99298758       -35.78335
0.4528               0.992958364      -35.877755
0.4539               0.992928981     -35.9722246
0.455                0.992899428     -36.0667592
0.4561               0.992869704      -36.161359
0.4572               0.992839807     -36.2560245
0.4583               0.992809736     -36.3507559
0.4594               0.992779488     -36.4455536
0.4605               0.992749062     -36.5404178
0.4616               0.992718456      -36.635349
0.4627               0.992687669     -36.7303474
0.4638               0.992656698     -36.8254134
0.4649               0.992625541     -36.9205474
0.466                0.992594197     -37.0157496
0.4671               0.992562664     -37.1110203
0.4682               0.992530939       -37.20636
0.4693               0.992499022      -37.301769
0.4704               0.992466909     -37.3972476
0.4715               0.992434599     -37.4927962
0.4726                0.99240209      -37.588415
0.4737                0.99236938     -37.6841046
0.4748               0.992336467     -37.7798651
0.4759               0.992303348     -37.8756969
0.477                0.992270022     -37.9716005
0.4781               0.992236487     -38.0675761
0.4792               0.992202741     -38.1636241
0.4803                0.99216878     -38.2597448
0.4814               0.992134604     -38.3559387
0.4825                0.99210021     -38.4522061
0.4836               0.992065596     -38.5485473
0.4847               0.992030759     -38.6449627
0.4858               0.991995697     -38.7414527
0.4869               0.991960409     -38.8380176
0.488                0.991924891     -38.9346578
0.4891               0.991889142     -39.0313737
0.4902               0.991853159     -39.1281657
0.4913                0.99181694      -39.225034
0.4924               0.991780483     -39.3219791
0.4935               0.991743784     -39.4190014
0.4946               0.991706842     -39.5161013
0.4957               0.991669654      -39.613279
0.4968               0.991632218     -39.7105351
0.4979               0.991594532     -39.8078698
0.499                0.991556592     -39.9052837
0.5                  0.991521879     -39.9939106
0.5001               0.991518396     -40.0027754
0.5012               0.991479945     -40.1003317
0.5023               0.991441233     -40.1979681
0.5034               0.991402257     -40.2956851
0.5045               0.991363016      -40.393483
0.5056               0.991323506     -40.4913623
0.5067               0.991283724     -40.5893234
0.5078               0.991243668     -40.6873666
0.5089               0.991203335     -40.7854923
0.51                 0.991162723      -40.883701
0.5111               0.991121828     -40.9819931
0.5122               0.991080648     -41.0803689
0.5133               0.991039181     -41.1788289
0.5144               0.990997422     -41.2773735
0.5155                0.99095537     -41.3760031
0.5166               0.990913021     -41.4747181
0.5177               0.990870373     -41.5735189
0.5188               0.990827422      -41.672406
0.5199               0.990784166     -41.7713798
0.521                0.990740601     -41.8704406
0.5221               0.990696725      -41.969589
0.5232               0.990652535     -42.0688253
0.5243               0.990608027       -42.16815
0.5254               0.990563198     -42.2675635
0.5265               0.990518046     -42.3670663
0.5276               0.990472566     -42.4666587
0.5287               0.990426757     -42.5663412
0.5298               0.990380614     -42.6661143
0.5309               0.990334134     -42.7659784
0.532                0.990287314     -42.8659339
0.5331               0.990240151     -42.9659813
0.5342               0.990192642      -43.066121
0.5353               0.990144783     -43.1663535
0.5364                0.99009657     -43.2666792
0.5375               0.990048001     -43.3670986
0.5386               0.989999072     -43.4676122
0.5397               0.989949778     -43.5682203
0.5408               0.989900118     -43.6689236
0.5419               0.989850087     -43.7697223
0.543                0.989799682     -43.8706171
0.5441               0.989748898     -43.9716083
0.5452               0.989697733     -44.0726964
0.5463               0.989646183      -44.173882
0.5474               0.989594244     -44.2751654
0.5485               0.989541913     -44.3765472
0.5496               0.989489185     -44.4780278
0.5507               0.989436057     -44.5796077
0.5518               0.989382524     -44.6812874
0.5529               0.989328584     -44.7830675
0.554                0.989274232     -44.8849483
0.5551               0.989219465     -44.9869303
0.5562               0.989164277     -45.0890142
0.5573               0.989108666     -45.1912002
0.5584               0.989052627     -45.2934891
0.5595               0.988996157     -45.3958812
0.5606                0.98893925     -45.4983771
0.5617               0.988881903     -45.6009772
0.5628               0.988824113     -45.7036821
0.5639               0.988765874     -45.8064923
0.565                0.988707182     -45.9094084
0.5661               0.988648033     -46.0124307
0.5672               0.988588423     -46.1155599
0.5683               0.988528347     -46.2187964
0.5694               0.988467802     -46.3221409
0.5705               0.988406781     -46.4255937
0.5716               0.988345282     -46.5291555
0.5727                 0.9882833     -46.6328268
0.5738                0.98822083     -46.7366081
0.5749               0.988157867     -46.8404999
0.576                0.988094407     -46.9445028
0.5771               0.988030445     -47.0486174
0.5782               0.987965977     -47.1528442
0.5793               0.987900997     -47.2571836
0.5804               0.987835501     -47.3616364
0.5815               0.987769485      -47.466203
0.5826               0.987702943      -47.570884
0.5837                0.98763587       -47.67568
0.5848               0.987568262     -47.7805915
0.5859               0.987500113     -47.8856191
0.587                0.987431419     -47.9907633
0.5881               0.987362174     -48.0960248
0.5892               0.987292373      -48.201404
0.5903               0.987222011     -48.3069017
0.5914               0.987151084     -48.4125183
0.5925               0.987079585     -48.5182545
0.5936               0.987007509     -48.6241108
0.5947               0.986934852     -48.7300879
0.5958               0.986861607     -48.8361862
0.5969               0.986787769     -48.9424065
0.598                0.986713334     -49.0487494
0.5991               0.986638294     -49.1552153
0.6                  0.986576446     -49.2424158
0.6002               0.986562646     -49.2618027
0.6013               0.986486385     -49.3685042
0.6024               0.986409504     -49.4753307
0.6035               0.986331996     -49.5822826
0.6046               0.986253857     -49.6893608
0.6057               0.986175079     -49.7965657
0.6068               0.986095659      -49.903898
0.6079               0.986015588     -50.0113583
0.609                0.985934863     -50.1189473
0.6101               0.985853476     -50.2266656
0.6112               0.985771421     -50.3345138
0.6123               0.985688694     -50.4424927
0.6134               0.985605286     -50.5506027
0.6145               0.985521193     -50.6588446
0.6156               0.985436407     -50.7672191
0.6167               0.985350924     -50.8757268
0.6178               0.985264735     -50.9843683
0.6189               0.985177836     -51.0931444
0.62                 0.985090219     -51.2020556
0.6211               0.985001877     -51.3111027
0.6222               0.984912806     -51.4202864
0.6233               0.984822997     -51.5296072
0.6244               0.984732444      -51.639066
0.6255                0.98464114     -51.7486634
0.6266               0.984549079        -51.8584
0.6277               0.984456254     -51.9682766
0.6288               0.984362658     -52.0782939
0.6299               0.984268283     -52.1884526
0.631                0.984173124     -52.2987534
0.6321               0.984077172      -52.409197
0.6332               0.983980421      -52.519784
0.6343               0.983882864     -52.6305154
0.6354               0.983784492     -52.7413916
0.6365                 0.9836853     -52.8524136
0.6376               0.983585279      -52.963582
0.6387               0.983484423     -53.0748975
0.6398               0.983382723     -53.1863609
0.6409               0.983280172      -53.297973
0.642                0.983176763     -53.4097345
0.6431               0.983072488     -53.5216461
0.6442               0.982967338     -53.6337085
0.6453               0.982861307     -53.7459227
0.6464               0.982754386     -53.8582893
0.6475               0.982646568      -53.970809
0.6486               0.982537844     -54.0834828
0.6497               0.982428207     -54.1963113
0.6508               0.982317648     -54.3092953
0.6519               0.982206158     -54.4224357
0.653                0.982093731     -54.5357332
0.6541               0.981980357     -54.6491885
0.6552               0.981866027     -54.7628027
0.6563               0.981750735     -54.8765763
0.6574                0.98163447     -54.9905103
0.6585               0.981517224     -55.1046055
0.6596               0.981398989     -55.2188626
0.6607               0.981279756     -55.3332825
0.6618               0.981159516     -55.4478661
0.6629                0.98103826     -55.5626142
0.664                0.980915979     -55.6775276
0.6651               0.980792663     -55.7926072
0.6662               0.980668305     -55.9078537
0.6673               0.980542894     -56.0232682
0.6684               0.980416421     -56.1388515
0.6695               0.980288877     -56.2546043
0.6706               0.980160253     -56.3705276
0.6717               0.980030538     -56.4866223
0.6728               0.979899724     -56.6028893
0.6739                 0.9797678     -56.7193294
0.675                0.979634757     -56.8359436
0.6761               0.979500584     -56.9527327
0.6772               0.979365273     -57.0696976
0.6783               0.979228812     -57.1868393
0.6794               0.979091192     -57.3041588
0.6805               0.978952402     -57.4216568
0.6816               0.978812433     -57.5393343
0.6827               0.978671273     -57.6571924
0.6838               0.978528912     -57.7752318
0.6849                0.97838534     -57.8934537
0.686                0.978240547     -58.0118588
0.6871                0.97809452     -58.1304483
0.6882                0.97794725      -58.249223
0.6893               0.977798725     -58.3681839
0.6904               0.977648935      -58.487332
0.6915               0.977497867     -58.6066684
0.6926               0.977345512     -58.7261939
0.6937               0.977191858     -58.8459096
0.6948               0.977036893     -58.9658165
0.6959               0.976880606     -59.0859155
0.697                0.976722984     -59.2062078
0.6981               0.976564018     -59.3266944
0.6992               0.976403693     -59.4473762
0.7                  0.976286234     -59.5352681
0.7003                  0.976242     -59.5682518
0.7014               0.976078927     -59.6893177
0.7025               0.975914461      -59.810582
0.7036               0.975748589     -59.9320457
0.7047               0.975581298       -60.05371
0.7058               0.975412577     -60.1755759
0.7069               0.975242413     -60.2976445
0.708                0.975070792     -60.4199168
0.7091               0.974897703      -60.542394
0.7102               0.974723132     -60.6650771
0.7113               0.974547067     -60.7879673
0.7124               0.974369493     -60.9110658
0.7135               0.974190398     -61.0343735
0.7146               0.974009769     -61.1578917
0.7157               0.973827591     -61.2816215
0.7168               0.973643852     -61.4055641
0.7179               0.973458537     -61.5297206
0.719                0.973271633     -61.6540921
0.7201               0.973083126       -61.77868
0.7212                  0.972893     -61.9034852
0.7223               0.972701243     -62.0285091
0.7234                0.97250784     -62.1537527
0.7245               0.972312776     -62.2792175
0.7256               0.972116036     -62.4049044
0.7267               0.971917606     -62.5308148
0.7278               0.971717471       -62.65695
0.7289               0.971515616     -62.7833111
0.73                 0.971312025     -62.9098993
0.7311               0.971106684     -63.0367161
0.7322               0.970899575     -63.1637625
0.7333               0.970690685       -63.29104
0.7344               0.970479997     -63.4185498
0.7355               0.970267496     -63.5462931
0.7366               0.970053164     -63.6742713
0.7377               0.969836986     -63.8024858
0.7388               0.969618946     -63.9309378
0.7399               0.969399027     -64.0596286
0.741                0.969177211     -64.1885597
0.7421               0.968953484     -64.3177323
0.7432               0.968727826     -64.4471478
0.7443               0.968500222     -64.5768076
0.7454               0.968270653     -64.7067132
0.7465               0.968039103     -64.8368658
0.7476               0.967805553     -64.9672668
0.7487               0.967569985     -65.0979178
0.7498               0.967332382     -65.2288201
0.7509               0.967092726     -65.3599751
0.752                0.966850998     -65.4913844
0.7531               0.966607178     -65.6230493
0.7542                0.96636125     -65.7549713
0.7553               0.966113193     -65.8871519
0.7564               0.965862989     -66.0195926
0.7575               0.965610618     -66.1522949
0.7586               0.965356061     -66.2852603
0.7597               0.965099298     -66.4184903
0.7608               0.964840309     -66.5519865
0.7619               0.964579074     -66.6857504
0.763                0.964315572     -66.8197836
0.7641               0.964049784     -66.9540875
0.7652               0.963781689     -67.0886639
0.7663               0.963511265     -67.2235143
0.7674               0.963238491     -67.3586403
0.7685               0.962963347     -67.4940435
0.7696                0.96268581     -67.6297256
0.7707               0.962405859     -67.7656882
0.7718               0.962123472     -67.9019329
0.7729               0.961838627     -68.0384615
0.774                  0.9615513     -68.1752755
0.7751                0.96126147     -68.3123767
0.7762               0.960969114     -68.4497669
0.7773               0.960674208     -68.5874476
0.7784               0.960376729     -68.7254207
0.7795               0.960076653     -68.8636878
0.7806               0.959773957     -69.0022508
0.7817               0.959468616     -69.1411114
0.7828               0.959160606     -69.2802715
0.7839               0.958849902     -69.4197327
0.785                 0.95853648     -69.5594969
0.7861               0.958220314      -69.699566
0.7872               0.957901379     -69.8399417
0.7883               0.957579649      -69.980626
0.7894               0.957255098     -70.1216206
0.7905                 0.9569277     -70.2629276
0.7916               0.956597429     -70.4045487
0.7927               0.956264257     -70.5464859
0.7938               0.955928158     -70.6887412
0.7949               0.955589104     -70.8313163
0.796                0.955247068     -70.9742135
0.7971               0.954902021     -71.1174345
0.7982               0.954553935     -71.2609813
0.7993               0.954202783     -71.4048561
0.8                  0.953977711     -71.4965844
0.8004               0.953848534      -71.549058
0.8015               0.953491162      -71.693587
0.8026               0.953130635       -71.83845
0.8037               0.952766923      -71.983649
0.8048               0.952399996     -72.1291861
0.8059               0.952029824     -72.2750634
0.807                0.951656376      -72.421283
0.8081                0.95127962     -72.5678471
0.8092               0.950899526     -72.7147578
0.8103               0.950516061     -72.8620172
0.8114               0.950129193     -73.0096275
0.8125                0.94973889      -73.157591
0.8136               0.949345119     -73.3059098
0.8147               0.948947846     -73.4545862
0.8158               0.948547037     -73.6036223
0.8169                0.94814266     -73.7530206
0.818                0.947734679     -73.9027832
0.8191               0.947323059     -74.0529124
0.8202               0.946907766     -74.2034106
0.8213               0.946488764     -74.3542801
0.8224               0.946066017     -74.5055233
0.8235               0.945639488     -74.6571424
0.8246               0.945209141       -74.80914
0.8257               0.944774939     -74.9615184
0.8268               0.944336843       -75.11428
0.8279               0.943894817     -75.2674272
0.829                0.943448821     -75.4209626
0.8301               0.942998817     -75.5748886
0.8312               0.942544766     -75.7292077
0.8323               0.942086627     -75.8839224
0.8334                0.94162436     -76.0390352
0.8345               0.941157925     -76.1945488
0.8356               0.940687281     -76.3504656
0.8367               0.940212386     -76.5067883
0.8378               0.939733197     -76.6635194
0.8389               0.939249674     -76.8206617
0.84                 0.938761771     -76.9782177
0.8411               0.938269446     -77.1361901
0.8422               0.937772655     -77.2945817
0.8433               0.937271354      -77.453395
0.8444               0.936765496     -77.6126329
0.8455               0.936255038     -77.7722981
0.8466               0.935739932     -77.9323933
0.8477               0.935220132     -78.0929213
0.8488               0.934695592      -78.253885
0.8499               0.934166262     -78.4152872
0.851                0.933632096     -78.5771307
0.8521               0.933093044     -78.7394184
0.8532               0.932549058     -78.9021532
0.8543               0.932000086     -79.0653379
0.8554                0.93144608     -79.2289756
0.8565               0.930886987     -79.3930692
0.8576               0.930322756     -79.5576215
0.8587               0.929753335     -79.7226357
0.8598               0.929178672     -79.8881148
0.8609               0.928598712     -80.0540617
0.862                0.928013402     -80.2204796
0.8631               0.927422688     -80.3873714
0.8642               0.926826513     -80.5547404
0.8653               0.926224822     -80.7225895
0.8664               0.925617559     -80.8909221
0.8675               0.925004667     -81.0597411
0.8686               0.924386087     -81.2290499
0.8697               0.923761761     -81.3988515
0.8708                0.92313163     -81.5691492
0.8719               0.922495634     -81.7399464
0.873                0.921853713     -81.9112461
0.8741               0.921205806     -82.0830518
0.8752                0.92055185     -82.2553667
0.8763               0.919891783     -82.4281941
0.8774               0.919225542     -82.6015375
0.8785               0.918553063     -82.7754001
0.8796                0.91787428     -82.9497854
0.8807                0.91718913     -83.1246968
0.8818               0.916497544     -83.3001377
0.8829               0.915799458     -83.4761116
0.884                0.915094801      -83.652622
0.8851               0.914383508     -83.8296723
0.8862               0.913665507     -84.0072661
0.8873               0.912940729     -84.1854069
0.8884               0.912209103     -84.3640983
0.8895               0.911470558     -84.5433438
0.8906               0.910725022     -84.7231471
0.8917                0.90997242     -84.9035118
0.8928               0.909212679     -85.0844415
0.8939               0.908445725       -85.26594
0.895                0.907671481     -85.4480108
0.8961               0.906889871     -85.6306577
0.8972               0.906100817     -85.8138844
0.8983               0.905304243     -85.9976947
0.8994               0.904500067     -86.1820924
0.9                  0.904058194     -86.2829218
0.9005               0.903688211      -86.367079
0.9016               0.902868595     -86.5526581
0.9027               0.902041135     -86.7388359
0.9038                0.90120575     -86.9256163
0.9049               0.900362355     -87.1130031
0.906                0.899510867     -87.3010003
0.9071                 0.8986512     -87.4896117
0.9082               0.897783269     -87.6788413
0.9093               0.896906985      -87.868693
0.9104               0.896022261     -88.0591707
0.9115               0.895129008     -88.2502785
0.9126               0.894227136     -88.4420203
0.9137               0.893316554     -88.6344001
0.9148               0.892397171      -88.827422
0.9159               0.891468892       -89.02109
0.917                0.890531625     -89.2154081
0.9181               0.889585275     -89.4103805
0.9192               0.888629746     -89.6060112
0.9203               0.887664941     -89.8023043
0.9214               0.886690763     -89.9992639
0.9225               0.885707112     -90.1968942
0.9236                0.88471389     -90.3951994
0.9247               0.883710994     -90.5941835
0.9258               0.882698325     -90.7938508
0.9269               0.881675777     -90.9942055
0.928                0.880643249     -91.1952517
0.9291               0.879600634     -91.3969937
0.9302               0.878547828     -91.5994357
0.9313               0.877484722     -91.8025819
0.9324               0.876411209     -92.0064366
0.9335               0.875327181     -92.2110039
0.9346               0.874232526     -92.4162883
0.9357               0.873127134     -92.6222939
0.9368               0.872010892     -92.8290251
0.9379               0.870883687     -93.0364861
0.939                0.869745405     -93.2446812
0.9401                0.86859593     -93.4536148
0.9412               0.867435146      -93.663291
0.9423               0.866262935     -93.8737143
0.9434               0.865079179     -94.0848889
0.9445               0.863883757     -94.2968192
0.9456               0.862676549     -94.5095094
0.9467               0.861457434      -94.722964
0.9478               0.860226287     -94.9371871
0.9489               0.858982985     -95.1521832
0.95                 0.857727403     -95.3679565
0.9511               0.856459414     -95.5845091
0.9522               0.855178892     -95.8018476
0.9533               0.853885707     -96.0199762
0.9544               0.852579731     -96.2388993
0.9555               0.851260833     -96.4586212
0.9566               0.849928882     -96.6791461
0.9577               0.848583744     -96.9004783
0.9588               0.847225287     -97.1226222
0.9599               0.845853375     -97.3455819
0.961                0.844467873     -97.5693616
0.9621               0.843068644     -97.7939657
0.9632               0.841655551     -98.0193984
0.9643               0.840228454     -98.2456637
0.9654               0.838787213      -98.472766
0.9665               0.837331688     -98.7007093
0.9676               0.835861737     -98.9294979
0.9687               0.834377217     -99.1591358
0.9698               0.832877985     -99.3896271
0.9709               0.831363895     -99.6209759
0.972                0.829834803     -99.8531863
0.9731               0.828290561     -100.086262
0.9742               0.826731022     -100.320208
0.9753               0.825156039     -100.555026
0.9764               0.823565461     -100.790723
0.9775               0.821959138       -101.0273
0.9786               0.820336921     -101.264763
0.9797               0.818698657     -101.503115
0.9808               0.817044195     -101.742359
0.9819                0.81537338       -101.9825
0.983                0.813686061     -102.223541
0.9841               0.811982082     -102.465486
0.9852                0.81026129     -102.708338
0.9863               0.808523529     -102.952101
0.9874               0.806768645     -103.196778
0.9885               0.804996483     -103.442372
0.9896               0.803206889     -103.688887
0.9907               0.801399711     -103.936327
0.9918               0.799574799     -104.184695
0.9929               0.797732008     -104.433994
0.994                0.795871203     -104.684228
0.9951               0.793992267     -104.935401
0.9962               0.792095125     -105.187515
0.9973               0.790179806     -105.440578
0.9984               0.788246679     -105.694596
0.9995               0.786297796     -105.949591
1                    0.785409839     -106.065834
1.0006               0.784367652      -106.20536
1.0017               0.782301331     -106.461766
1.0028               0.780300767     -106.719834
1.0039               0.778272557     -106.978652
1.005                0.776223002     -107.238394
1.0061               0.774152968     -107.499087
1.0072               0.772062601     -107.760738
1.0083               0.769951866     -108.023353
1.0094               0.767820661     -108.286934
1.0105               0.765668856     -108.551483
1.0116               0.763496307     -108.817003
1.0127               0.761302863     -109.083494
1.0138               0.759088371     -109.350959
1.0149               0.756852673     -109.619398
1.016                0.754595612     -109.888813
1.0171               0.752317031     -110.159205
1.0182                0.75001677     -110.430574
1.0193               0.747694671     -110.702921
1.0204               0.745350576     -110.976247
1.0215               0.742984329     -111.250551
1.0226               0.740595772     -111.525833
1.0237                0.73818475     -111.802095
1.0248               0.735751107     -112.079335
1.0259               0.733294689     -112.357553
1.027                0.730815345     -112.636749
1.0281               0.728312922     -112.916921
1.0292                0.72578727     -113.198069
1.0303               0.723238239     -113.480191
1.0314               0.720665684     -113.763287
1.0325               0.718069457     -114.047353
1.0336               0.715449414      -114.33239
1.0347               0.712805414     -114.618394
1.0358               0.710137316     -114.905363
1.0369               0.707444981     -115.193295
1.038                0.704728272     -115.482187
1.0391               0.701987056     -115.772037
1.0402               0.699221201      -116.06284
1.0413               0.696430577     -116.354593